% Model:              Fabryczne_2_promien_0m52_zatkane_out01.mph
% Version:            COMSOL 5.3.0.260
% Date:               Feb 20 2019, 12:47
% Dimension:          2
% Nodes:              55423
% Expressions:        1
% Description:        Directivity
% X                       Y                        IsoLevel
1.6020599913279623        -180                     -3.162507225202368
1.6020599913279623        -178                     -3.162507225202368
1.6020599913279623        -176                     -3.162507225202368
1.6020599913279623        -174                     -3.162507225202368
1.6020599913279623        -172                     -3.162507225202368
1.6020599913279623        -170                     -3.162507225202368
1.6020599913279623        -168                     -3.162507225202368
1.6020599913279623        -166                     -3.162507225202368
1.6020599913279623        -164                     -3.162507225202368
1.6020599913279623        -162                     -3.162507225202368
1.6020599913279623        -160                     -3.162507225202368
1.6020599913279623        -158                     -3.162507225202368
1.6020599913279623        -156                     -3.162507225202368
1.6020599913279623        -154                     -3.162507225202368
1.6020599913279623        -152                     -3.162507225202368
1.6020599913279623        -150                     -3.162507225202368
1.6020599913279623        -148                     -3.162507225202368
1.6020599913279623        -146                     -3.162507225202368
1.6020599913279623        -144                     -3.162507225202368
1.6020599913279623        -142                     -3.162507225202368
1.6020599913279623        -140                     -3.162507225202368
1.6020599913279623        -138                     -3.162507225202368
1.6020599913279623        -136                     -3.162507225202368
1.6020599913279623        -134                     -3.162507225202368
1.6020599913279623        -132                     -1.4182697614908333
1.6020599913279623        -130                     -1.4182697614908333
1.6020599913279623        -128                     -1.4182697614908333
1.6020599913279623        -126                     -1.4182697614908333
1.6020599913279623        -124                     -1.4182697614908333
1.6020599913279623        -122                     -1.4182697614908333
1.6020599913279623        -120.00000000000001      -1.4182697614908333
1.6020599913279623        -117.99999999999999      -1.4182697614908333
1.6020599913279623        -116.00000000000001      -1.4182697614908333
1.6020599913279623        -114                     -1.4182697614908333
1.6020599913279623        -111.99999999999999      -1.4182697614908333
1.6020599913279623        -110                     -1.4182697614908333
1.6020599913279623        -108                     -1.4182697614908333
1.6020599913279623        -106                     -1.4182697614908333
1.6020599913279623        -104                     -1.4182697614908333
1.6020599913279623        -102                     -1.4182697614908333
1.6020599913279623        -100                     -1.4182697614908333
1.6020599913279623        -98.00000000000001       -1.4182697614908333
1.6020599913279623        -96                      -1.4182697614908333
1.6020599913279623        -94                      -1.4182697614908333
1.6020599913279623        -92                      -1.4182697614908333
1.6020599913279623        -90                      -1.4182697614908333
1.6020599913279623        -88.00000000000001       -1.4182697614908333
1.6020599913279623        -86                      -1.4182697614908333
1.6020599913279623        -84                      -1.4182697614908333
1.6020599913279623        -82                      -1.4182697614908333
1.6020599913279623        -80                      -1.4182697614908333
1.6020599913279623        -78.00000000000001       -1.4182697614908333
1.6020599913279623        -75.99999999999999       -1.4182697614908333
1.6020599913279623        -74                      -1.4182697614908333
1.6020599913279623        -72                      -1.4182697614908333
1.6020599913279623        -70                      -1.4182697614908333
1.6020599913279623        -68                      -1.4182697614908333
1.6020599913279623        -66                      -1.4182697614908333
1.6020599913279623        -63.999999999999986      -1.4182697614908333
1.6020599913279623        -62.000000000000014      -1.4182697614908333
1.6020599913279623        -60.00000000000001       -1.4182697614908333
1.6020599913279623        -58.00000000000001       -1.4182697614908333
1.6020599913279623        -56                      -1.4182697614908333
1.6020599913279623        -54                      -1.4182697614908333
1.6020599913279623        -52                      -1.4182697614908333
1.6020599913279623        -49.99999999999999       -1.4182697614908333
1.6020599913279623        -47.99999999999999       -1.4182697614908333
1.6020599913279623        -46.000000000000014      -1.4182697614908333
1.6020599913279623        -43.999999999999986      -1.4182697614908333
1.6020599913279623        -42.00000000000001       -1.4182697614908333
1.6020599913279623        -40.00000000000001       -1.4182697614908333
1.6020599913279623        -38                      -1.4182697614908333
1.6020599913279623        -36                      -1.4182697614908333
1.6020599913279623        -34                      -1.4182697614908333
1.6020599913279623        -31.999999999999993      -1.4182697614908333
1.6020599913279623        -29.999999999999993      -1.4182697614908333
1.6020599913279623        -28.000000000000014      -1.4182697614908333
1.6020599913279623        -25.999999999999986      -1.4182697614908333
1.6020599913279623        -24.000000000000007      -1.4182697614908333
1.6020599913279623        -22.000000000000007      -1.4182697614908333
1.6020599913279623        -20.000000000000004      -1.4182697614908333
1.6020599913279623        -18                      -1.4182697614908333
1.6020599913279623        -16.00000000000002       -1.4182697614908333
1.6020599913279623        -13.999999999999995      -1.4182697614908333
1.6020599913279623        -11.999999999999991      -1.4182697614908333
1.6020599913279623        -9.99999999999999        -1.4182697614908333
1.6020599913279623        -8.00000000000001        -1.4182697614908333
1.6020599913279623        -6.000000000000009       -1.4182697614908333
1.6020599913279623        -4.000000000000005       -1.4182697614908333
1.6020599913279623        -1.9999999999999774      -1.4182697614908333
1.6020599913279623        0                        -1.4182697614908333
1.6020599913279623        2.0000000000000027       -1.4182697614908333
1.6020599913279623        3.99999999999998         -1.4182697614908333
1.6020599913279623        5.999999999999983        -1.4182697614908333
1.6020599913279623        8.00000000000001         -1.4182697614908333
1.6020599913279623        10.000000000000014       -1.4182697614908333
1.6020599913279623        11.999999999999991       -1.4182697614908333
1.6020599913279623        13.999999999999995       -1.4182697614908333
1.6020599913279623        15.999999999999996       -1.4182697614908333
1.6020599913279623        18.000000000000025       -1.4182697614908333
1.6020599913279623        20.000000000000004       -1.4182697614908333
1.6020599913279623        22.000000000000007       -1.4182697614908333
1.6020599913279623        23.999999999999982       -1.4182697614908333
1.6020599913279623        25.999999999999986       -1.4182697614908333
1.6020599913279623        28.000000000000014       -1.4182697614908333
1.6020599913279623        30.000000000000018       -1.4182697614908333
1.6020599913279623        31.999999999999993       -1.4182697614908333
1.6020599913279623        34                       -1.4182697614908333
1.6020599913279623        36                       -1.4182697614908333
1.6020599913279623        37.99999999999998        -1.4182697614908333
1.6020599913279623        40.00000000000001        -1.4182697614908333
1.6020599913279623        42.00000000000001        -1.4182697614908333
1.6020599913279623        44.000000000000014       -1.4182697614908333
1.6020599913279623        45.999999999999986       -1.4182697614908333
1.6020599913279623        47.99999999999999        -1.4182697614908333
1.6020599913279623        49.99999999999999        -1.4182697614908333
1.6020599913279623        52.00000000000002        -1.4182697614908333
1.6020599913279623        54                       -1.4182697614908333
1.6020599913279623        55.99999999999998        -1.4182697614908333
1.6020599913279623        58.00000000000001        -1.4182697614908333
1.6020599913279623        59.999999999999986       -1.4182697614908333
1.6020599913279623        62.000000000000014       -1.4182697614908333
1.6020599913279623        63.999999999999986       -1.4182697614908333
1.6020599913279623        66.00000000000001        -1.4182697614908333
1.6020599913279623        68                       -1.4182697614908333
1.6020599913279623        69.99999999999997        -1.4182697614908333
1.6020599913279623        72                       -1.4182697614908333
1.6020599913279623        74.00000000000003        -1.4182697614908333
1.6020599913279623        76                       -1.4182697614908333
1.6020599913279623        77.99999999999999        -1.4182697614908333
1.6020599913279623        80.00000000000001        -1.4182697614908333
1.6020599913279623        82.00000000000004        -1.4182697614908333
1.6020599913279623        84.00000000000001        -1.4182697614908333
1.6020599913279623        86                       -1.4182697614908333
1.6020599913279623        87.99999999999997        -1.4182697614908333
1.6020599913279623        90                       -1.4182697614908333
1.6020599913279623        92.00000000000003        -1.4182697614908333
1.6020599913279623        94                       -1.4182697614908333
1.6020599913279623        95.99999999999999        -1.4182697614908333
1.6020599913279623        98.00000000000001        -1.4182697614908333
1.6020599913279623        99.99999999999999        -1.4182697614908333
1.6020599913279623        101.99999999999997       -1.4182697614908333
1.6020599913279623        104                      -1.4182697614908333
1.6020599913279623        106.00000000000003       -1.4182697614908333
1.6020599913279623        108                      -1.4182697614908333
1.6020599913279623        109.99999999999997       -1.4182697614908333
1.6020599913279623        112                      -1.4182697614908333
1.6020599913279623        114.00000000000003       -1.4182697614908333
1.6020599913279623        116.00000000000001       -1.4182697614908333
1.6020599913279623        117.99999999999999       -1.4182697614908333
1.6020599913279623        120.00000000000001       -1.4182697614908333
1.6020599913279623        122                      -1.4182697614908333
1.6020599913279623        123.99999999999997       -1.4182697614908333
1.6020599913279623        126                      -1.4182697614908333
1.6020599913279623        128.00000000000003       -1.4182697614908333
1.6020599913279623        130                      -1.4182697614908333
1.6020599913279623        131.99999999999997       -1.4182697614908333
1.6020599913279623        133.99999999999997       -3.162507225202368
1.6020599913279623        136                      -3.162507225202368
1.6020599913279623        138.00000000000003       -3.162507225202368
1.6020599913279623        140                      -3.162507225202368
1.6020599913279623        141.99999999999997       -3.162507225202368
1.6020599913279623        144                      -3.162507225202368
1.6020599913279623        145.99999999999997       -3.162507225202368
1.6020599913279623        147.99999999999994       -3.162507225202368
1.6020599913279623        149.99999999999997       -3.162507225202368
1.6020599913279623        152                      -3.162507225202368
1.6020599913279623        154.00000000000003       -3.162507225202368
1.6020599913279623        156.00000000000003       -3.162507225202368
1.6020599913279623        158                      -3.162507225202368
1.6020599913279623        160.00000000000003       -3.162507225202368
1.6020599913279623        162                      -3.162507225202368
1.6020599913279623        163.99999999999997       -3.162507225202368
1.6020599913279623        166                      -3.162507225202368
1.6020599913279623        167.99999999999997       -3.162507225202368
1.6020599913279623        169.99999999999997       -3.162507225202368
1.6020599913279623        172                      -3.162507225202368
1.6020599913279623        174.00000000000003       -3.162507225202368
1.6020599913279623        176.00000000000006       -3.162507225202368
1.6020599913279623        178.00000000000003       -3.162507225202368
1.6020599913279623        180                      -3.162507225202368
1.6532125137753437        -180                     -3.162507225202368
1.6532125137753437        -178                     -3.162507225202368
1.6532125137753437        -176                     -3.162507225202368
1.6532125137753437        -174                     -3.162507225202368
1.6532125137753437        -172                     -3.162507225202368
1.6532125137753437        -170                     -3.162507225202368
1.6532125137753437        -168                     -3.162507225202368
1.6532125137753437        -166                     -3.162507225202368
1.6532125137753437        -164                     -3.162507225202368
1.6532125137753437        -162                     -3.162507225202368
1.6532125137753437        -160                     -3.162507225202368
1.6532125137753437        -158                     -3.162507225202368
1.6532125137753437        -156                     -3.162507225202368
1.6532125137753437        -154                     -3.162507225202368
1.6532125137753437        -152                     -3.162507225202368
1.6532125137753437        -150                     -3.162507225202368
1.6532125137753437        -148                     -3.162507225202368
1.6532125137753437        -146                     -3.162507225202368
1.6532125137753437        -144                     -3.162507225202368
1.6532125137753437        -142                     -3.162507225202368
1.6532125137753437        -140                     -3.162507225202368
1.6532125137753437        -138                     -3.162507225202368
1.6532125137753437        -136                     -3.162507225202368
1.6532125137753437        -134                     -3.162507225202368
1.6532125137753437        -132                     -3.162507225202368
1.6532125137753437        -130                     -1.4182697614908333
1.6532125137753437        -128                     -1.4182697614908333
1.6532125137753437        -126                     -1.4182697614908333
1.6532125137753437        -124                     -1.4182697614908333
1.6532125137753437        -122                     -1.4182697614908333
1.6532125137753437        -120.00000000000001      -1.4182697614908333
1.6532125137753437        -117.99999999999999      -1.4182697614908333
1.6532125137753437        -116.00000000000001      -1.4182697614908333
1.6532125137753437        -114                     -1.4182697614908333
1.6532125137753437        -111.99999999999999      -1.4182697614908333
1.6532125137753437        -110                     -1.4182697614908333
1.6532125137753437        -108                     -1.4182697614908333
1.6532125137753437        -106                     -1.4182697614908333
1.6532125137753437        -104                     -1.4182697614908333
1.6532125137753437        -102                     -1.4182697614908333
1.6532125137753437        -100                     -1.4182697614908333
1.6532125137753437        -98.00000000000001       -1.4182697614908333
1.6532125137753437        -96                      -1.4182697614908333
1.6532125137753437        -94                      -1.4182697614908333
1.6532125137753437        -92                      -1.4182697614908333
1.6532125137753437        -90                      -1.4182697614908333
1.6532125137753437        -88.00000000000001       -1.4182697614908333
1.6532125137753437        -86                      -1.4182697614908333
1.6532125137753437        -84                      -1.4182697614908333
1.6532125137753437        -82                      -1.4182697614908333
1.6532125137753437        -80                      -1.4182697614908333
1.6532125137753437        -78.00000000000001       -1.4182697614908333
1.6532125137753437        -75.99999999999999       -1.4182697614908333
1.6532125137753437        -74                      -1.4182697614908333
1.6532125137753437        -72                      -1.4182697614908333
1.6532125137753437        -70                      -1.4182697614908333
1.6532125137753437        -68                      -1.4182697614908333
1.6532125137753437        -66                      -1.4182697614908333
1.6532125137753437        -63.999999999999986      -1.4182697614908333
1.6532125137753437        -62.000000000000014      -1.4182697614908333
1.6532125137753437        -60.00000000000001       -1.4182697614908333
1.6532125137753437        -58.00000000000001       -1.4182697614908333
1.6532125137753437        -56                      -1.4182697614908333
1.6532125137753437        -54                      -1.4182697614908333
1.6532125137753437        -52                      -1.4182697614908333
1.6532125137753437        -49.99999999999999       -1.4182697614908333
1.6532125137753437        -47.99999999999999       -1.4182697614908333
1.6532125137753437        -46.000000000000014      -1.4182697614908333
1.6532125137753437        -43.999999999999986      -1.4182697614908333
1.6532125137753437        -42.00000000000001       -1.4182697614908333
1.6532125137753437        -40.00000000000001       -1.4182697614908333
1.6532125137753437        -38                      -1.4182697614908333
1.6532125137753437        -36                      -1.4182697614908333
1.6532125137753437        -34                      -1.4182697614908333
1.6532125137753437        -31.999999999999993      -1.4182697614908333
1.6532125137753437        -29.999999999999993      -1.4182697614908333
1.6532125137753437        -28.000000000000014      -1.4182697614908333
1.6532125137753437        -25.999999999999986      -1.4182697614908333
1.6532125137753437        -24.000000000000007      -1.4182697614908333
1.6532125137753437        -22.000000000000007      -1.4182697614908333
1.6532125137753437        -20.000000000000004      -1.4182697614908333
1.6532125137753437        -18                      -1.4182697614908333
1.6532125137753437        -16.00000000000002       -1.4182697614908333
1.6532125137753437        -13.999999999999995      -1.4182697614908333
1.6532125137753437        -11.999999999999991      -1.4182697614908333
1.6532125137753437        -9.99999999999999        -1.4182697614908333
1.6532125137753437        -8.00000000000001        -1.4182697614908333
1.6532125137753437        -6.000000000000009       -1.4182697614908333
1.6532125137753437        -4.000000000000005       -1.4182697614908333
1.6532125137753437        -1.9999999999999774      -1.4182697614908333
1.6532125137753437        0                        -1.4182697614908333
1.6532125137753437        2.0000000000000027       -1.4182697614908333
1.6532125137753437        3.99999999999998         -1.4182697614908333
1.6532125137753437        5.999999999999983        -1.4182697614908333
1.6532125137753437        8.00000000000001         -1.4182697614908333
1.6532125137753437        10.000000000000014       -1.4182697614908333
1.6532125137753437        11.999999999999991       -1.4182697614908333
1.6532125137753437        13.999999999999995       -1.4182697614908333
1.6532125137753437        15.999999999999996       -1.4182697614908333
1.6532125137753437        18.000000000000025       -1.4182697614908333
1.6532125137753437        20.000000000000004       -1.4182697614908333
1.6532125137753437        22.000000000000007       -1.4182697614908333
1.6532125137753437        23.999999999999982       -1.4182697614908333
1.6532125137753437        25.999999999999986       -1.4182697614908333
1.6532125137753437        28.000000000000014       -1.4182697614908333
1.6532125137753437        30.000000000000018       -1.4182697614908333
1.6532125137753437        31.999999999999993       -1.4182697614908333
1.6532125137753437        34                       -1.4182697614908333
1.6532125137753437        36                       -1.4182697614908333
1.6532125137753437        37.99999999999998        -1.4182697614908333
1.6532125137753437        40.00000000000001        -1.4182697614908333
1.6532125137753437        42.00000000000001        -1.4182697614908333
1.6532125137753437        44.000000000000014       -1.4182697614908333
1.6532125137753437        45.999999999999986       -1.4182697614908333
1.6532125137753437        47.99999999999999        -1.4182697614908333
1.6532125137753437        49.99999999999999        -1.4182697614908333
1.6532125137753437        52.00000000000002        -1.4182697614908333
1.6532125137753437        54                       -1.4182697614908333
1.6532125137753437        55.99999999999998        -1.4182697614908333
1.6532125137753437        58.00000000000001        -1.4182697614908333
1.6532125137753437        59.999999999999986       -1.4182697614908333
1.6532125137753437        62.000000000000014       -1.4182697614908333
1.6532125137753437        63.999999999999986       -1.4182697614908333
1.6532125137753437        66.00000000000001        -1.4182697614908333
1.6532125137753437        68                       -1.4182697614908333
1.6532125137753437        69.99999999999997        -1.4182697614908333
1.6532125137753437        72                       -1.4182697614908333
1.6532125137753437        74.00000000000003        -1.4182697614908333
1.6532125137753437        76                       -1.4182697614908333
1.6532125137753437        77.99999999999999        -1.4182697614908333
1.6532125137753437        80.00000000000001        -1.4182697614908333
1.6532125137753437        82.00000000000004        -1.4182697614908333
1.6532125137753437        84.00000000000001        -1.4182697614908333
1.6532125137753437        86                       -1.4182697614908333
1.6532125137753437        87.99999999999997        -1.4182697614908333
1.6532125137753437        90                       -1.4182697614908333
1.6532125137753437        92.00000000000003        -1.4182697614908333
1.6532125137753437        94                       -1.4182697614908333
1.6532125137753437        95.99999999999999        -1.4182697614908333
1.6532125137753437        98.00000000000001        -1.4182697614908333
1.6532125137753437        99.99999999999999        -1.4182697614908333
1.6532125137753437        101.99999999999997       -1.4182697614908333
1.6532125137753437        104                      -1.4182697614908333
1.6532125137753437        106.00000000000003       -1.4182697614908333
1.6532125137753437        108                      -1.4182697614908333
1.6532125137753437        109.99999999999997       -1.4182697614908333
1.6532125137753437        112                      -1.4182697614908333
1.6532125137753437        114.00000000000003       -1.4182697614908333
1.6532125137753437        116.00000000000001       -1.4182697614908333
1.6532125137753437        117.99999999999999       -1.4182697614908333
1.6532125137753437        120.00000000000001       -1.4182697614908333
1.6532125137753437        122                      -1.4182697614908333
1.6532125137753437        123.99999999999997       -1.4182697614908333
1.6532125137753437        126                      -1.4182697614908333
1.6532125137753437        128.00000000000003       -1.4182697614908333
1.6532125137753437        130                      -1.4182697614908333
1.6532125137753437        131.99999999999997       -3.162507225202368
1.6532125137753437        133.99999999999997       -3.162507225202368
1.6532125137753437        136                      -3.162507225202368
1.6532125137753437        138.00000000000003       -3.162507225202368
1.6532125137753437        140                      -3.162507225202368
1.6532125137753437        141.99999999999997       -3.162507225202368
1.6532125137753437        144                      -3.162507225202368
1.6532125137753437        145.99999999999997       -3.162507225202368
1.6532125137753437        147.99999999999994       -3.162507225202368
1.6532125137753437        149.99999999999997       -3.162507225202368
1.6532125137753437        152                      -3.162507225202368
1.6532125137753437        154.00000000000003       -3.162507225202368
1.6532125137753437        156.00000000000003       -3.162507225202368
1.6532125137753437        158                      -3.162507225202368
1.6532125137753437        160.00000000000003       -3.162507225202368
1.6532125137753437        162                      -3.162507225202368
1.6532125137753437        163.99999999999997       -3.162507225202368
1.6532125137753437        166                      -3.162507225202368
1.6532125137753437        167.99999999999997       -3.162507225202368
1.6532125137753437        169.99999999999997       -3.162507225202368
1.6532125137753437        172                      -3.162507225202368
1.6532125137753437        174.00000000000003       -3.162507225202368
1.6532125137753437        176.00000000000006       -3.162507225202368
1.6532125137753437        178.00000000000003       -3.162507225202368
1.6532125137753437        180                      -3.162507225202368
1.6989700043360187        -180                     -3.162507225202368
1.6989700043360187        -178                     -3.162507225202368
1.6989700043360187        -176                     -3.162507225202368
1.6989700043360187        -174                     -3.162507225202368
1.6989700043360187        -172                     -3.162507225202368
1.6989700043360187        -170                     -3.162507225202368
1.6989700043360187        -168                     -3.162507225202368
1.6989700043360187        -166                     -3.162507225202368
1.6989700043360187        -164                     -3.162507225202368
1.6989700043360187        -162                     -3.162507225202368
1.6989700043360187        -160                     -3.162507225202368
1.6989700043360187        -158                     -3.162507225202368
1.6989700043360187        -156                     -3.162507225202368
1.6989700043360187        -154                     -3.162507225202368
1.6989700043360187        -152                     -3.162507225202368
1.6989700043360187        -150                     -3.162507225202368
1.6989700043360187        -148                     -3.162507225202368
1.6989700043360187        -146                     -3.162507225202368
1.6989700043360187        -144                     -3.162507225202368
1.6989700043360187        -142                     -3.162507225202368
1.6989700043360187        -140                     -3.162507225202368
1.6989700043360187        -138                     -3.162507225202368
1.6989700043360187        -136                     -3.162507225202368
1.6989700043360187        -134                     -3.162507225202368
1.6989700043360187        -132                     -3.162507225202368
1.6989700043360187        -130                     -3.162507225202368
1.6989700043360187        -128                     -3.162507225202368
1.6989700043360187        -126                     -1.4182697614908333
1.6989700043360187        -124                     -1.4182697614908333
1.6989700043360187        -122                     -1.4182697614908333
1.6989700043360187        -120.00000000000001      -1.4182697614908333
1.6989700043360187        -117.99999999999999      -1.4182697614908333
1.6989700043360187        -116.00000000000001      -1.4182697614908333
1.6989700043360187        -114                     -1.4182697614908333
1.6989700043360187        -111.99999999999999      -1.4182697614908333
1.6989700043360187        -110                     -1.4182697614908333
1.6989700043360187        -108                     -1.4182697614908333
1.6989700043360187        -106                     -1.4182697614908333
1.6989700043360187        -104                     -1.4182697614908333
1.6989700043360187        -102                     -1.4182697614908333
1.6989700043360187        -100                     -1.4182697614908333
1.6989700043360187        -98.00000000000001       -1.4182697614908333
1.6989700043360187        -96                      -1.4182697614908333
1.6989700043360187        -94                      -1.4182697614908333
1.6989700043360187        -92                      -1.4182697614908333
1.6989700043360187        -90                      -1.4182697614908333
1.6989700043360187        -88.00000000000001       -1.4182697614908333
1.6989700043360187        -86                      -1.4182697614908333
1.6989700043360187        -84                      -1.4182697614908333
1.6989700043360187        -82                      -1.4182697614908333
1.6989700043360187        -80                      -1.4182697614908333
1.6989700043360187        -78.00000000000001       -1.4182697614908333
1.6989700043360187        -75.99999999999999       -1.4182697614908333
1.6989700043360187        -74                      -1.4182697614908333
1.6989700043360187        -72                      -1.4182697614908333
1.6989700043360187        -70                      -1.4182697614908333
1.6989700043360187        -68                      -1.4182697614908333